 Gaussian 16, Revision C.01,
 Gaussian 16:  ES64L-G16RevC.01  3-Jul-2019

 --------------------------------------------------------
 # opt freq b97d3/def2tzvp/auto EmpiricalDispersion=GD3BJ
 --------------------------------------------------------

 ---------
 aceton C2
 ---------
 Symbolic Z-matrix:
 Charge =  0 Multiplicity = 1

 SCF Done:  E(RB97D3) =  -193.116547887     A.U. after   14 cycles
 SCF Done:  E(RB97D3) =  -193.117253016     A.U. after   11 cycles
 SCF Done:  E(RB97D3) =  -193.117255431     A.U. after    8 cycles
 SCF Done:  E(RB97D3) =  -193.117256672     A.U. after    8 cycles
 SCF Done:  E(RB97D3) =  -193.117258113     A.U. after    8 cycles
 SCF Done:  E(RB97D3) =  -193.117259613     A.U. after    8 cycles
 SCF Done:  E(RB97D3) =  -193.117261151     A.U. after    8 cycles
 SCF Done:  E(RB97D3) =  -193.117262343     A.U. after    8 cycles
 SCF Done:  E(RB97D3) =  -193.117262672     A.U. after    8 cycles
 Optimization completed.
    -- Stationary point found.
 Normal termination of Gaussian 16 at Fri Dec 29 10:50:16 2023.

 ----------------------------------------------------------------------
 #N Geom=AllCheck Guess=TCheck SCRF=Check GenChk RB97D3/def2TZVP/Auto F
 req
 ----------------------------------------------------------------------

 Structure from the checkpoint file:  "/home/monty/scratch/Gau-14937.chk"
 ---------
 aceton C2
 ---------
 Charge =  0 Multiplicity = 1

                         Standard orientation:
 ---------------------------------------------------------------------
 Center     Atomic      Atomic             Coordinates (Angstroms)
 Number     Number       Type             X           Y           Z
 ---------------------------------------------------------------------
      1          6           0        0.000000    1.288805   -0.615789
      2          6           0        0.000000   -0.000000    0.188631
      3          8           0        0.000000   -0.000000    1.403787
      4          6           0       -0.000000   -1.288805   -0.615789
      5          1           0       -0.076053    2.150258    0.050125
      6          1           0       -0.829788    1.294025   -1.333433
      7          1           0        0.924849    1.358870   -1.202994
      8          1           0       -0.924849   -1.358870   -1.202994
      9          1           0        0.076053   -2.150258    0.050125
     10          1           0        0.829788   -1.294025   -1.333433
 ---------------------------------------------------------------------

 SCF Done:  E(RB97D3) =  -193.117262671     A.U. after    1 cycles

 The electronic state is 1-A.
 Alpha  occ. eigenvalues --  -18.73892  -9.99028  -9.90756  -9.90755  -0.95641
 Alpha  occ. eigenvalues --   -0.70251  -0.64703  -0.48065  -0.41556  -0.41199
 Alpha  occ. eigenvalues --   -0.40360  -0.36252  -0.35176  -0.33895  -0.31485
 Alpha  occ. eigenvalues --   -0.20745
 Alpha virt. eigenvalues --   -0.05480   0.01297   0.06498   0.07699   0.08081
 Alpha virt. eigenvalues --    0.10575   0.10905   0.11180   0.14542   0.16252
 Alpha virt. eigenvalues --    0.18517   0.19921   0.20377   0.26311   0.27124

 Mulliken charges:
               1
     1  C   -0.299324
     2  C    0.170549
     3  O   -0.270389
     4  C   -0.299324
     5  H    0.123692
     6  H    0.111159
     7  H    0.114393
     8  H    0.114393
     9  H    0.123692
    10  H    0.111159
 Sum of Mulliken charges =  -0.00000

 Dipole moment (field-independent basis, Debye):
    X=             -0.0000    Y=              0.0000    Z=             -2.9031  Tot=              2.9031
 Quadrupole moment (field-independent basis, Debye-Ang):
   XX=            -24.2165   YY=            -23.8363   ZZ=            -28.8617
   XY=              0.0394   XZ=              0.0000   YZ=             -0.0000

  Exact polarizability:      32.671       0.081      45.026      -0.000       0.000      45.771
 Approx polarizability:      52.955       0.213      61.537       0.000      -0.000      83.350

                      1                      2                      3
                      A                      B                      A
 Frequencies --     32.0866               130.3811               377.2134
 Red. masses --      1.0172                 1.1279                 2.1897
 Frc consts  --      0.0006                 0.0113                 0.1836
 IR Inten    --      0.0049                 0.0048                 1.4073

                      4                      5                      6
                      B                      B                      A
 Frequencies --    479.0342               524.6368               762.6142
 Red. masses --      1.9748                 3.6280                 3.7145
 Frc consts  --      0.2670                 0.5884                 1.2728
 IR Inten    --      0.2566                11.7943                 2.5683

                      7                      8                      9
                      A                      B                      A
 Frequencies --    859.7797               860.5816              1060.5547
 Red. masses --      1.2139                 1.5817                 1.5578
 Frc consts  --      0.5287                 0.6902                 1.0323
 IR Inten    --      0.0197                13.4779                 0.0247

                     10                     11                     12
                      B                      B                      B
 Frequencies --   1090.2250              1201.4305              1349.2614
 Red. masses --      1.9904                 2.8963                 1.3672
 Frc consts  --      1.3939                 2.4632                 1.4665
 IR Inten    --      2.2087                80.9930                51.2379

                     13                     14                     15
                      A                      B                      A
 Frequencies --   1350.9026              1430.2671              1433.8345
 Red. masses --      1.2165                 1.0433                 1.0526
 Frc consts  --      1.3081                 1.2575                 1.2750
 IR Inten    --     20.9012                 0.5592                 2.8557

                     16                     17                     18
                      A                      B                      A
 Frequencies --   1440.9012              1457.4375              1736.9207
 Red. masses --      1.0716                 1.0456                 9.2410
 Frc consts  --      1.3108                 1.3085                16.4258
 IR Inten    --     25.5203                19.3036               173.6347

                     19                     20                     21
                      B                      A                      A
 Frequencies --   2978.2028              2985.3018              3035.4842
 Red. masses --      1.0369                 1.0369                 1.0977
 Frc consts  --      5.4185                 5.4446                 5.9592
 IR Inten    --      2.1861                 8.6359                 0.4089

                     22                     23                     24
                      B                      B                      A
 Frequencies --   3042.7205              3098.0509              3099.3549
 Red. masses --      1.0979                 1.1013                 1.1016
 Frc consts  --      5.9890                 6.2277                 6.2348
 IR Inten    --     22.2331                15.9803                 9.9679

 - Thermochemistry -
 -------------------
 Temperature   298.150 Kelvin.  Pressure   1.00000 Atm.
 Atom     1 has atomic number  6 and mass  12.00000

 Molecular mass:    58.04186 amu.
 Principal axes and moments of inertia in atomic units:
                           1         2         3
     Eigenvalues --   179.47809 212.13845 369.30753
           X            0.00074   0.00000   1.00000
           Y            1.00000   0.00000  -0.00074
           Z            0.00000   1.00000   0.00000
 This molecule is an asymmetric top.
 Rotational symmetry number  2.
 Rotational temperatures (Kelvin)      0.48259     0.40829     0.23453
 Rotational constants (GHZ):          10.05550     8.50737     4.88682
 Zero-point vibrational energy     214234.3 (Joules/Mol)
                                   51.20323 (Kcal/Mol)
 Warning -- explicit consideration of   5 degrees of freedom as
           vibrations may cause significant error
 Vibrational temperatures:     46.17   187.59   542.73   689.22   754.84
          (Kelvin)           1097.23  1237.03  1238.18  1525.90  1568.59
                             1728.59  1941.29  1943.65  2057.84  2062.97
                             2073.14  2096.93  2499.04  4284.97  4295.18
                             4367.38  4377.80  4457.40  4459.28

 Zero-point correction=                           0.081598 (Hartree/Particle)
 Thermal correction to Energy=                    0.087092
 Thermal correction to Enthalpy=                  0.088036
 Thermal correction to Gibbs Free Energy=         0.053480
 Sum of electronic and zero-point Energies=           -193.035665
 Sum of electronic and thermal Energies=              -193.030170
 Sum of electronic and thermal Enthalpies=            -193.029226
 Sum of electronic and thermal Free Energies=         -193.063783

                     E (Thermal)             CV                S
                      KCal/Mol        Cal/Mol-Kelvin    Cal/Mol-Kelvin
 Total                   54.651             17.166             72.730
 Electronic               0.000              0.000              0.000
 Translational            0.889              2.981             38.096
 Rotational               0.889              2.981             22.779
 Vibrational             52.874             11.205             11.854
 Vibration     1          0.594              1.983              5.696
 Vibration     2          0.612              1.923              2.940
 Vibration     3          0.748              1.519              1.050
 Vibration     4          0.835              1.297              0.713
 Vibration     5          0.880              1.195              0.599

 Optimization completed.
    -- Stationary point found.
 Normal termination of Gaussian 16 at Fri Dec 29 10:51:48 2023.
